 Gaussian 16, Revision A.03,
 Gaussian 16:  ES64L-G16RevA.03 25-Dec-2016

 ------------------------------------------
 # opt wb97xd Gen scrf=(cpcm,solvent=water)
 ------------------------------------------

 -------------------
 Title Card Required
 -------------------
 Symbolic Z-matrix:
 Charge =  0 Multiplicity = 1

 SCF Done:  E(RwB97XD) =  -647.373054588     A.U. after   13 cycles
 SCF Done:  E(RwB97XD) =  -647.375233590     A.U. after   11 cycles
 SCF Done:  E(RwB97XD) =  -647.375516750     A.U. after   11 cycles
 SCF Done:  E(RwB97XD) =  -647.375568877     A.U. after   11 cycles
 SCF Done:  E(RwB97XD) =  -647.375645270     A.U. after   10 cycles
 SCF Done:  E(RwB97XD) =  -647.375680461     A.U. after   10 cycles
 SCF Done:  E(RwB97XD) =  -647.375705543     A.U. after   10 cycles
 SCF Done:  E(RwB97XD) =  -647.375716297     A.U. after    9 cycles
 SCF Done:  E(RwB97XD) =  -647.375743310     A.U. after   10 cycles
 SCF Done:  E(RwB97XD) =  -647.375770361     A.U. after   11 cycles
 SCF Done:  E(RwB97XD) =  -647.376512330     A.U. after   10 cycles
 SCF Done:  E(RwB97XD) =  -647.376504563     A.U. after   10 cycles
 SCF Done:  E(RwB97XD) =  -647.376503731     A.U. after    8 cycles
 SCF Done:  E(RwB97XD) =  -647.376511510     A.U. after   10 cycles
 SCF Done:  E(RwB97XD) =  -647.376504991     A.U. after   10 cycles
 SCF Done:  E(RwB97XD) =  -647.376511235     A.U. after   10 cycles
 SCF Done:  E(RwB97XD) =  -647.376504288     A.U. after   10 cycles
 SCF Done:  E(RwB97XD) =  -647.376511192     A.U. after   10 cycles
 SCF Done:  E(RwB97XD) =  -647.376504650     A.U. after   10 cycles
 SCF Done:  E(RwB97XD) =  -647.376511057     A.U. after   10 cycles
 Optimization completed.
    -- Stationary point found.

                         Standard orientation:
 ---------------------------------------------------------------------
 Center     Atomic      Atomic             Coordinates (Angstroms)
 Number     Number       Type             X           Y           Z
 ---------------------------------------------------------------------
      1          5           0        0.095433    0.081209   -0.179416
      2          8           0       -1.026979    0.829420   -0.761885
      3          8           0        0.152930    0.432351    1.250687
      4          8           0       -0.307007   -1.344439   -0.224560
      5          8           0        1.319079    0.395519   -0.905838
      6          6           0       -1.283455    0.687521   -2.126002
      7          6           0        0.454937    1.752334    1.590151
      8          6           0        0.543804   -2.322000    0.291145
      9          6           0        2.572943    0.087180   -0.377273
     10          1           0       -2.195470    1.247697   -2.382366
     11          1           0       -1.441275   -0.368553   -2.408921
     12          1           0       -0.456645    1.081703   -2.742043
     13          1           0       -0.283680    2.463444    1.180517
     14          1           0        0.454231    1.852030    2.685943
     15          1           0        1.451182    2.057640    1.223218
     16          1           0       -0.006823   -3.270564    0.382199
     17          1           0        1.414344   -2.503191   -0.363891
     18          1           0        0.924736   -2.053382    1.292352
     19          1           0        3.263580    0.933059   -0.529633
     20          1           0        2.529693   -0.119725    0.705283
     21          1           0        3.016549   -0.796838   -0.868662
     22         11           0       -2.180104   -0.423853    1.053430
 ---------------------------------------------------------------------

 The electronic state is 1-A.
 Alpha  occ. eigenvalues --  -38.57040 -19.22118 -19.21900 -19.21841 -19.21662
 Alpha  occ. eigenvalues --  -10.32291 -10.32285 -10.32281 -10.32170  -6.88246
 Alpha  occ. eigenvalues --   -2.28461  -1.20421  -1.20366  -1.20363  -1.10949
 Alpha  occ. eigenvalues --   -1.05919  -1.05686  -1.05577  -0.76906  -0.74404
 Alpha  occ. eigenvalues --   -0.73803  -0.73691  -0.60590  -0.56618  -0.56420
 Alpha  occ. eigenvalues --   -0.56209  -0.52717  -0.51980  -0.50185  -0.49346
 Alpha  occ. eigenvalues --   -0.49253  -0.48696  -0.48532  -0.48247  -0.40236
 Alpha  occ. eigenvalues --   -0.38623  -0.37427  -0.36070  -0.34163  -0.33937
 Alpha  occ. eigenvalues --   -0.33280  -0.31535
 Alpha virt. eigenvalues --    0.03919   0.05140   0.05156   0.06769   0.10315
 Alpha virt. eigenvalues --    0.11366   0.12082   0.13756   0.13955   0.14466
 Alpha virt. eigenvalues --    0.15213   0.16156   0.16311   0.16987   0.17178

 Mulliken charges:
               1
     1  B    0.425010
     2  O   -1.034968
     3  O   -1.141152
     4  O   -1.349134
     5  O   -1.139946
     6  C    0.854139
     7  C    0.931232
     8  C    1.011069
     9  C    1.082486
    10  H   -0.188168
    11  H    0.009135
    12  H    0.001107
    13  H   -0.002832
    14  H   -0.209433
    15  H    0.003004
    16  H   -0.264128
    17  H    0.020008
    18  H    0.089504
    19  H   -0.276465
    20  H    0.134343
    21  H   -0.017907
    22  Na   1.063097
 Sum of Mulliken charges =  -0.00000

 Dipole moment (field-independent basis, Debye):
    X=             -7.6193    Y=             -2.2998    Z=              5.5122  Tot=              9.6813
 Quadrupole moment (field-independent basis, Debye-Ang):
   XX=            -41.7334   YY=            -62.7874   ZZ=            -60.3003
   XY=              3.1860   XZ=             -8.3995   YZ=             -1.0989

 Normal termination of Gaussian 16 at Thu Feb 16 10:04:53 2023.
